Program Version,EnergyPlus, Version 23.2.0-7636e6b3e9, YMD=2023.10.25 15:17
1,5,Environment Title[],Latitude[deg],Longitude[deg],Time Zone[],Elevation[m]
2,8,Day of Simulation[],Month[],Day of Month[],DST Indicator[1=yes 0=no],Hour[],StartMinute[],EndMinute[],DayType
3,5,Cumulative Day of Simulation[],Month[],Day of Month[],DST Indicator[1=yes 0=no],DayType  ! When Daily Report Variables Requested
4,2,Cumulative Days of Simulation[],Month[]  ! When Monthly Report Variables Requested
5,1,Cumulative Days of Simulation[] ! When Run Period Report Variables Requested
6,1,Calendar Year of Simulation[] ! When Annual Report Variables Requested
7,1,Environment,Site Outdoor Air Drybulb Temperature [C] !Hourly
8,1,Environment,Site Outdoor Air Humidity Ratio [kgWater/kgDryAir] !Hourly
9,1,Environment,Site Outdoor Air Relative Humidity [%] !Hourly
1109,1,CORE_BOTTOM,Zone Mean Air Temperature [C] !Hourly
1110,1,CORE_MID,Zone Mean Air Temperature [C] !Hourly
1111,1,CORE_TOP,Zone Mean Air Temperature [C] !Hourly
1112,1,FIRSTFLOOR_PLENUM,Zone Mean Air Temperature [C] !Hourly
1113,1,MIDFLOOR_PLENUM,Zone Mean Air Temperature [C] !Hourly
1114,1,PERIMETER_BOT_ZN_1,Zone Mean Air Temperature [C] !Hourly
1115,1,PERIMETER_BOT_ZN_2,Zone Mean Air Temperature [C] !Hourly
1116,1,PERIMETER_BOT_ZN_3,Zone Mean Air Temperature [C] !Hourly
1117,1,PERIMETER_BOT_ZN_4,Zone Mean Air Temperature [C] !Hourly
1118,1,PERIMETER_MID_ZN_1,Zone Mean Air Temperature [C] !Hourly
1119,1,PERIMETER_MID_ZN_2,Zone Mean Air Temperature [C] !Hourly
1120,1,PERIMETER_MID_ZN_3,Zone Mean Air Temperature [C] !Hourly
1121,1,PERIMETER_MID_ZN_4,Zone Mean Air Temperature [C] !Hourly
1122,1,PERIMETER_TOP_ZN_1,Zone Mean Air Temperature [C] !Hourly
1123,1,PERIMETER_TOP_ZN_2,Zone Mean Air Temperature [C] !Hourly
1124,1,PERIMETER_TOP_ZN_3,Zone Mean Air Temperature [C] !Hourly
1125,1,PERIMETER_TOP_ZN_4,Zone Mean Air Temperature [C] !Hourly
1126,1,TOPFLOOR_PLENUM,Zone Mean Air Temperature [C] !Hourly
2315,1,SWHSYS1,Plant System Cycle On Off Status [] !Hourly
2367,1,SWHSYS1,Plant Supply Side Heating Demand Rate [W] !Hourly
2368,1,SWHSYS1,Plant Supply Side Inlet Mass Flow Rate [kg/s] !Hourly
2369,1,SWHSYS1,Plant Supply Side Inlet Temperature [C] !Hourly
2370,1,SWHSYS1,Plant Supply Side Outlet Temperature [C] !Hourly
2371,1,SWHSYS1,Plant Supply Side Unmet Demand Rate [W] !Hourly
2698,1,VAV_1,Air System Simulation Cycle On Off Status [] !Hourly
2699,1,VAV_2,Air System Simulation Cycle On Off Status [] !Hourly
2700,1,VAV_3,Air System Simulation Cycle On Off Status [] !Hourly
2730,1,VAV_1,Air System Outdoor Air Economizer Status [] !Hourly
2731,1,VAV_1,Air System Outdoor Air Flow Fraction [] !Hourly
2732,1,VAV_2,Air System Outdoor Air Economizer Status [] !Hourly
2733,1,VAV_2,Air System Outdoor Air Flow Fraction [] !Hourly
2734,1,VAV_3,Air System Outdoor Air Economizer Status [] !Hourly
2735,1,VAV_3,Air System Outdoor Air Flow Fraction [] !Hourly
3001,1,VAV FAN CURVE,Performance Curve Input Variable 1 Value [] !Each Call
3002,1,VAV FAN CURVE,Performance Curve Output Value [] !Each Call
3702,1,VAV_1,Air System Total Heating Energy [J] !Hourly
3703,1,VAV_1,Air System Total Cooling Energy [J] !Hourly
3704,1,VAV_1,Air System Fan Electricity Energy [J] !Hourly
3705,1,VAV_1,Air System Heating Coil Hot Water Energy [J] !Hourly
3706,1,VAV_2,Air System Total Heating Energy [J] !Hourly
3707,1,VAV_2,Air System Total Cooling Energy [J] !Hourly
3708,1,VAV_2,Air System Fan Electricity Energy [J] !Hourly
3709,1,VAV_2,Air System Heating Coil Hot Water Energy [J] !Hourly
3710,1,VAV_3,Air System Total Heating Energy [J] !Hourly
3711,1,VAV_3,Air System Total Cooling Energy [J] !Hourly
3712,1,VAV_3,Air System Fan Electricity Energy [J] !Hourly
3713,1,VAV_3,Air System Heating Coil Hot Water Energy [J] !Hourly
12,1,Electricity:Facility [J] !Hourly
2675,1,Fans:Electricity [J] !Hourly
2752,1,Cooling:Electricity [J] !Hourly
2558,1,Heating:Electricity [J] !Hourly
60,1,InteriorLights:Electricity [J] !Hourly
651,1,InteriorEquipment:Electricity [J] !Hourly
2612,1,NaturalGas:Facility [J] !Hourly
2636,1,Heating:NaturalGas [J] !Hourly
14,9,Electricity:Facility [J] !Monthly [Value,Min,Day,Hour,Minute,Max,Day,Hour,Minute]
2614,9,NaturalGas:Facility [J] !Monthly [Value,Min,Day,Hour,Minute,Max,Day,Hour,Minute]
3032,9,CO2:Facility [kg] !Monthly [Value,Min,Day,Hour,Minute,Max,Day,Hour,Minute]
3057,9,CO:Facility [kg] !Monthly [Value,Min,Day,Hour,Minute,Max,Day,Hour,Minute]
3082,9,CH4:Facility [kg] !Monthly [Value,Min,Day,Hour,Minute,Max,Day,Hour,Minute]
3107,9,NOx:Facility [kg] !Monthly [Value,Min,Day,Hour,Minute,Max,Day,Hour,Minute]
3132,9,N2O:Facility [kg] !Monthly [Value,Min,Day,Hour,Minute,Max,Day,Hour,Minute]
3157,9,SO2:Facility [kg] !Monthly [Value,Min,Day,Hour,Minute,Max,Day,Hour,Minute]
3182,9,PM:Facility [kg] !Monthly [Value,Min,Day,Hour,Minute,Max,Day,Hour,Minute]
3207,9,PM10:Facility [kg] !Monthly [Value,Min,Day,Hour,Minute,Max,Day,Hour,Minute]
3232,9,PM2.5:Facility [kg] !Monthly [Value,Min,Day,Hour,Minute,Max,Day,Hour,Minute]
3257,9,NH3:Facility [kg] !Monthly [Value,Min,Day,Hour,Minute,Max,Day,Hour,Minute]
3282,9,NMVOC:Facility [kg] !Monthly [Value,Min,Day,Hour,Minute,Max,Day,Hour,Minute]
3307,9,Hg:Facility [kg] !Monthly [Value,Min,Day,Hour,Minute,Max,Day,Hour,Minute]
3332,9,Pb:Facility [kg] !Monthly [Value,Min,Day,Hour,Minute,Max,Day,Hour,Minute]
3357,9,WaterEnvironmentalFactors:Facility [L] !Monthly [Value,Min,Day,Hour,Minute,Max,Day,Hour,Minute]
3382,9,Nuclear High:Facility [kg] !Monthly [Value,Min,Day,Hour,Minute,Max,Day,Hour,Minute]
3407,9,Nuclear Low:Facility [m3] !Monthly [Value,Min,Day,Hour,Minute,Max,Day,Hour,Minute]
3679,9,Carbon Equivalent:Facility [kg] !Monthly [Value,Min,Day,Hour,Minute,Max,Day,Hour,Minute]
End of Data Dictionary
1,CHICAGO ANN CLG .4% CONDNS WB=>MDB,  41.77, -87.75,  -6.00, 190.00
2,1, 7,21, 0, 1, 0.00, 2.00,SummerDesignDay
3001,0.31785643691435966
3002,0.09168479560908419
2,1, 7,21, 0, 1, 2.00, 4.00,SummerDesignDay
3001,0.29999999999999993
3002,0.08609100942099998
2,1, 7,21, 0, 1, 4.00, 6.00,SummerDesignDay
3001,0.29999999999999993
3002,0.08609100942099998
2,1, 7,21, 0, 1, 6.00, 8.00,SummerDesignDay
3001,0.29999999999999993
3002,0.08609100942099998
2,1, 7,21, 0, 1, 8.00,10.00,SummerDesignDay
3001,0.29999999999999993
3002,0.08609100942099998
2,1, 7,21, 0, 1,10.00,12.00,SummerDesignDay
3001,0.29999999999999993
3002,0.08609100942099998
2,1, 7,21, 0, 1,12.00,14.00,SummerDesignDay
3001,0.29999999999999993
3002,0.08609100942099998
2,1, 7,21, 0, 1,14.00,16.00,SummerDesignDay
3001,0.29999999999999993
3002,0.08609100942099998
2,1, 7,21, 0, 1,16.00,18.00,SummerDesignDay
3001,0.29999999999999993
3002,0.08609100942099998
2,1, 7,21, 0, 1,18.00,20.00,SummerDesignDay
3001,0.29999999999999993
3002,0.08609100942099998
2,1, 7,21, 0, 1,20.00,23.33,SummerDesignDay
3001,0.29999999999999993
3002,0.08609100942099998
2,1, 7,21, 0, 1,23.33,26.67,SummerDesignDay
3001,0.29999999999999993
3002,0.08609100942099998
2,1, 7,21, 0, 1,26.67,30.00,SummerDesignDay
3001,0.29999999999999993
3002,0.08609100942099998
2,1, 7,21, 0, 1,30.00,32.00,SummerDesignDay
3001,0.29999999999999993
3002,0.08609100942099998
2,1, 7,21, 0, 1,32.00,34.00,SummerDesignDay
3001,0.29999999999999993
3002,0.08609100942099998
2,1, 7,21, 0, 1,34.00,36.00,SummerDesignDay
3001,0.29999999999999993
3002,0.08609100942099998
2,1, 7,21, 0, 1,36.00,38.00,SummerDesignDay
3001,0.29999999999999993
3002,0.08609100942099998
2,1, 7,21, 0, 1,38.00,40.00,SummerDesignDay
3001,0.29999999999999993
3002,0.08609100942099998
2,1, 7,21, 0, 1,40.00,42.00,SummerDesignDay
3001,0.29999999999999993
3002,0.08609100942099998
2,1, 7,21, 0, 1,42.00,44.00,SummerDesignDay
3001,0.29999999999999993
3002,0.08609100942099998
2,1, 7,21, 0, 1,44.00,46.00,SummerDesignDay
3001,0.29999999999999993
3002,0.08609100942099998
2,1, 7,21, 0, 1,46.00,48.00,SummerDesignDay
3001,0.29999999999999993
3002,0.08609100942099998
2,1, 7,21, 0, 1,48.00,50.00,SummerDesignDay
3001,0.29999999999999993
3002,0.08609100942099998
2,1, 7,21, 0, 1,50.00,52.00,SummerDesignDay
3001,0.31553544007627393
3002,0.09092857697073455
2,1, 7,21, 0, 1,52.00,54.00,SummerDesignDay
3001,0.29999999999999993
3002,0.08609100942099998
2,1, 7,21, 0, 1,54.00,56.00,SummerDesignDay
3001,0.29999999999999993
3002,0.08609100942099998
2,1, 7,21, 0, 1,56.00,58.00,SummerDesignDay
3001,0.29999999999999993
3002,0.08609100942099998
2,1, 7,21, 0, 1,58.00,60.00,SummerDesignDay
3001,0.29999999999999993
3002,0.08609100942099998
2,1, 7,21, 0, 1, 0.00,60.00,SummerDesignDay
7,22.0515
8,0.017117074623747962
9,100.0
1109,25.60467037122545
1110,26.152829554877737
1111,26.315737762712047
1112,26.621053740071147
1113,26.863429892457713
1114,24.642080622873703
1115,23.76411740936207
1116,25.281690957887708
1117,23.798516527452346
1118,24.833956815686875
1119,23.936573570144947
1120,25.480852755657178
1121,24.035461289476373
1122,24.9084015927781
1123,24.120388143745156
1124,25.39216796891675
1125,23.98741269382357
1126,26.508367450195482
2367,211.34765287232074
2368,0.031196817599999996
2369,58.38094997809882
2370,59.57065564385311
2371,56.05161592945484
2731,0.0
2733,0.0
2735,0.0
3702,2649383.8004069394
3703,111076891.50597076
3704,2649383.8004069272
3705,0.0
3706,2627660.1711994396
3707,104031112.39613873
3708,2627660.1711994284
3709,0.0
3710,2745380.7558861915
3711,127452885.96209289
3712,2745380.755886182
3713,0.0
2315,0.0
2698,1.3333333333333333
2699,1.1999999999999995
2700,1.1999999999999995
2730,0.0
2732,0.0
2734,0.0
12,525151814.14542186
60,192989952.8442144
651,192989952.8442144
2558,0.0
2612,72000.0
2636,0.0
2675,8022424.727492537
2752,77824699.3906782
2,1, 7,21, 0, 2, 0.00, 2.50,SummerDesignDay
3001,0.29999999999999993
3002,0.08609100942099998
2,1, 7,21, 0, 2, 2.50, 5.00,SummerDesignDay
3001,0.29999999999999993
3002,0.08609100942099998
2,1, 7,21, 0, 2, 5.00, 7.50,SummerDesignDay
3001,0.29999999999999993
3002,0.08609100942099998
2,1, 7,21, 0, 2, 7.50,10.00,SummerDesignDay
3001,0.29999999999999993
3002,0.08609100942099998
2,1, 7,21, 0, 2,10.00,20.00,SummerDesignDay
3001,0.29999999999999993
3002,0.08609100942099998
2,1, 7,21, 0, 2,20.00,22.00,SummerDesignDay
3001,0.29999999999999993
3002,0.08609100942099998
2,1, 7,21, 0, 2,22.00,24.00,SummerDesignDay
3001,0.29999999999999993
3002,0.08609100942099998
2,1, 7,21, 0, 2,24.00,26.00,SummerDesignDay
3001,0.29999999999999993
3002,0.08609100942099998
2,1, 7,21, 0, 2,26.00,28.00,SummerDesignDay
3001,0.29999999999999993
3002,0.08609100942099998
2,1, 7,21, 0, 2,28.00,30.00,SummerDesignDay
3001,0.29999999999999993
3002,0.08609100942099998
2,1, 7,21, 0, 2,30.00,32.00,SummerDesignDay
3001,0.29999999999999993
3002,0.08609100942099998
2,1, 7,21, 0, 2,32.00,34.00,SummerDesignDay
3001,0.29999999999999993
3002,0.08609100942099998
2,1, 7,21, 0, 2,34.00,36.00,SummerDesignDay
3001,0.29999999999999993
3002,0.08609100942099998
2,1, 7,21, 0, 2,36.00,38.00,SummerDesignDay
3001,0.29999999999999993
3002,0.08609100942099998
2,1, 7,21, 0, 2,38.00,40.00,SummerDesignDay
3001,0.29999999999999993
3002,0.08609100942099998
2,1, 7,21, 0, 2,40.00,42.00,SummerDesignDay
3001,0.31791398473484855
3002,0.09170365853469252
2,1, 7,21, 0, 2,42.00,44.00,SummerDesignDay
3001,0.29999999999999993
3002,0.08609100942099998
2,1, 7,21, 0, 2,44.00,46.00,SummerDesignDay
3001,0.29999999999999993
3002,0.08609100942099998
2,1, 7,21, 0, 2,46.00,48.00,SummerDesignDay
3001,0.29999999999999993
3002,0.08609100942099998
2,1, 7,21, 0, 2,48.00,50.00,SummerDesignDay
3001,0.29999999999999993
3002,0.08609100942099998
2,1, 7,21, 0, 2,50.00,52.50,SummerDesignDay
3001,0.29999999999999993
3002,0.08609100942099998
2,1, 7,21, 0, 2,52.50,55.00,SummerDesignDay
3001,0.29999999999999993
3002,0.08609100942099998
2,1, 7,21, 0, 2,55.00,57.50,SummerDesignDay
3001,0.29999999999999993
3002,0.08609100942099998
2,1, 7,21, 0, 2,57.50,60.00,SummerDesignDay
3001,0.29999999999999993
3002,0.08609100942099998
2,1, 7,21, 0, 2, 0.00,60.00,SummerDesignDay
7,21.534333333333336
8,0.01656997203258362
9,100.0
1109,25.389481857013408
1110,25.860327115949847
1111,26.005736830412815
1112,26.565309101048967
1113,26.868800610301502
1114,24.3284735640427
1115,23.44278243463593
1116,25.010966698404555
1117,23.43183658684465
1118,24.3137881753679
1119,23.303597667906132
1120,25.061605685113918
1121,23.338634319326378
1122,24.3620044937753
1123,23.470838654263193
1124,24.922433722467048
1125,23.25827863359116
1126,26.324965850778995
2367,312.54784598724854
2368,0.0311968176
2369,57.60552055057365
2370,58.74747106082152
2371,163.50826105512584
2731,0.3333333333333333
2733,0.4666666666666666
2735,0.4666666666666666
3702,2642013.855765871
3703,134304099.28236312
3704,2642013.8557658605
3705,0.0
3706,3453875.009194376
3707,179304601.89401174
3708,3453875.009194364
3709,0.0
3710,3548862.8660959997
3711,192350265.02871817
3712,3548862.8660959834
3713,0.0
2315,0.0
2698,1.3333333333333333
2699,1.5999999999999999
2700,1.5999999999999999
2730,0.3333333333333333
2732,0.4666666666666666
2734,0.4666666666666666
12,558991985.5225493
60,192989952.8442144
651,192989952.8442144
2558,0.0
2612,72000.0
2636,0.0
2675,9644751.731056208
2752,110042543.76424192
2,1, 7,21, 0, 3, 0.00, 2.00,SummerDesignDay
3001,0.29999999999999993
3002,0.08609100942099998
2,1, 7,21, 0, 3, 2.00, 4.00,SummerDesignDay
3001,0.29999999999999993
3002,0.08609100942099998
2,1, 7,21, 0, 3, 4.00, 6.00,SummerDesignDay
3001,0.29999999999999993
3002,0.08609100942099998
2,1, 7,21, 0, 3, 6.00, 8.00,SummerDesignDay
3001,0.29999999999999993
3002,0.08609100942099998
2,1, 7,21, 0, 3, 8.00,10.00,SummerDesignDay
3001,0.29999999999999993
3002,0.08609100942099998
2,1, 7,21, 0, 3,10.00,12.00,SummerDesignDay
3001,0.29999999999999993
3002,0.08609100942099998
2,1, 7,21, 0, 3,12.00,14.00,SummerDesignDay
3001,0.29999999999999993
3002,0.08609100942099998
2,1, 7,21, 0, 3,14.00,16.00,SummerDesignDay
3001,0.29999999999999993
3002,0.08609100942099998
2,1, 7,21, 0, 3,16.00,18.00,SummerDesignDay
3001,0.29999999999999993
3002,0.08609100942099998
2,1, 7,21, 0, 3,18.00,20.00,SummerDesignDay
3001,0.29999999999999993
3002,0.08609100942099998
2,1, 7,21, 0, 3,20.00,22.00,SummerDesignDay
3001,0.29999999999999993
3002,0.08609100942099998
2,1, 7,21, 0, 3,22.00,24.00,SummerDesignDay
3001,0.29999999999999993
3002,0.08609100942099998
2,1, 7,21, 0, 3,24.00,26.00,SummerDesignDay
3001,0.29999999999999993
3002,0.08609100942099998
2,1, 7,21, 0, 3,26.00,28.00,SummerDesignDay
3001,0.29999999999999993
3002,0.08609100942099998
2,1, 7,21, 0, 3,28.00,30.00,SummerDesignDay
3001,0.29999999999999993
3002,0.08609100942099998
2,1, 7,21, 0, 3,30.00,32.00,SummerDesignDay
3001,0.3192114048583605
3002,0.09213038084117141
2,1, 7,21, 0, 3,32.00,34.00,SummerDesignDay
3001,0.29999999999999993
3002,0.08609100942099998
2,1, 7,21, 0, 3,34.00,36.00,SummerDesignDay
3001,0.29999999999999993
3002,0.08609100942099998
2,1, 7,21, 0, 3,36.00,38.00,SummerDesignDay
3001,0.29999999999999993
3002,0.08609100942099998
2,1, 7,21, 0, 3,38.00,40.00,SummerDesignDay
3001,0.29999999999999993
3002,0.08609100942099998
2,1, 7,21, 0, 3,40.00,42.00,SummerDesignDay
3001,0.29999999999999993
3002,0.08609100942099998
2,1, 7,21, 0, 3,42.00,44.00,SummerDesignDay
3001,0.29999999999999993
3002,0.08609100942099998
2,1, 7,21, 0, 3,44.00,46.00,SummerDesignDay
3001,0.29999999999999993
3002,0.08609100942099998
2,1, 7,21, 0, 3,46.00,48.00,SummerDesignDay
3001,0.29999999999999993
3002,0.08609100942099998
2,1, 7,21, 0, 3,48.00,50.00,SummerDesignDay
3001,0.29999999999999993
3002,0.08609100942099998
2,1, 7,21, 0, 3,50.00,52.00,SummerDesignDay
3001,0.29999999999999993
3002,0.08609100942099998
2,1, 7,21, 0, 3,52.00,54.00,SummerDesignDay
3001,0.29999999999999993
3002,0.08609100942099998
2,1, 7,21, 0, 3,54.00,56.00,SummerDesignDay
3001,0.29999999999999993
3002,0.08609100942099998
2,1, 7,21, 0, 3,56.00,58.00,SummerDesignDay
3001,0.29999999999999993
3002,0.08609100942099998
2,1, 7,21, 0, 3,58.00,60.00,SummerDesignDay
3001,0.29999999999999993
3002,0.08609100942099998
2,1, 7,21, 0, 3, 0.00,60.00,SummerDesignDay
7,21.16875
8,0.01619300480982797
9,100.0
1109,25.31994758993699
1110,26.2188867293408
1111,26.325130526337606
1112,26.479419237347965
1113,26.81320300594291
1114,24.201410172471117
1115,23.32323337357811
1116,24.884861161559026
1117,23.283795038637034
1118,24.67034378779501
1119,23.729116265296085
1120,25.351631519554775
1121,23.761141439088135
1122,24.695694266100688
1123,23.86928388822477
1124,25.209350303722136
1125,23.669458178763545
1126,26.038969859250102
2367,278.2470075343011
2368,0.0311968176
2369,57.868309760822285
2370,59.075988273900435
2371,120.61973997066356
2731,0.6666666666666666
2733,0.6
2735,0.6
3702,2642666.5041477853
3703,154929047.68077952
3704,2642666.5041477745
3705,0.0
3706,2651607.2452842803
3707,153815688.47019866
3708,2651607.2452842714
3709,0.0
3710,2744364.348139644
3711,158271532.43633407
3712,2744364.3481396334
3713,0.0
2315,0.0
2698,1.3333333333333333
2699,1.2
2700,1.2
2730,0.6666666666666666
2732,0.6
2734,0.6
12,546612478.8598849
60,192989952.8442144
651,192989952.8442144
2558,0.0
2612,3970831.783377249
2636,0.0
2675,8038638.097571678
2752,99269150.73506211
2,1, 7,21, 0, 4, 0.00, 2.00,SummerDesignDay
3001,0.29999999999999993
3002,0.08609100942099998
2,1, 7,21, 0, 4, 2.00, 4.00,SummerDesignDay
3001,0.29999999999999993
3002,0.08609100942099998
2,1, 7,21, 0, 4, 4.00, 6.00,SummerDesignDay
3001,0.29999999999999993
3002,0.08609100942099998
2,1, 7,21, 0, 4, 6.00, 8.00,SummerDesignDay
3001,0.29999999999999993
3002,0.08609100942099998
2,1, 7,21, 0, 4, 8.00,10.00,SummerDesignDay
3001,0.29999999999999993
3002,0.08609100942099998
2,1, 7,21, 0, 4,10.00,12.00,SummerDesignDay
3001,0.29999999999999993
3002,0.08609100942099998
2,1, 7,21, 0, 4,12.00,14.00,SummerDesignDay
3001,0.29999999999999993
3002,0.08609100942099998
2,1, 7,21, 0, 4,14.00,16.00,SummerDesignDay
3001,0.29999999999999993
3002,0.08609100942099998
2,1, 7,21, 0, 4,16.00,18.00,SummerDesignDay
3001,0.29999999999999993
3002,0.08609100942099998
2,1, 7,21, 0, 4,18.00,20.00,SummerDesignDay
3001,0.29999999999999993
3002,0.08609100942099998
2,1, 7,21, 0, 4,20.00,22.00,SummerDesignDay
3001,0.320978488409534
3002,0.09271607729554536
2,1, 7,21, 0, 4,22.00,24.00,SummerDesignDay
3001,0.29999999999999993
3002,0.08609100942099998
2,1, 7,21, 0, 4,24.00,26.00,SummerDesignDay
3001,0.29999999999999993
3002,0.08609100942099998
2,1, 7,21, 0, 4,26.00,28.00,SummerDesignDay
3001,0.29999999999999993
3002,0.08609100942099998
2,1, 7,21, 0, 4,28.00,30.00,SummerDesignDay
3001,0.29999999999999993
3002,0.08609100942099998
2,1, 7,21, 0, 4,30.00,32.00,SummerDesignDay
3001,0.29999999999999993
3002,0.08609100942099998
2,1, 7,21, 0, 4,32.00,34.00,SummerDesignDay
3001,0.29999999999999993
3002,0.08609100942099998
2,1, 7,21, 0, 4,34.00,36.00,SummerDesignDay
3001,0.29999999999999993
3002,0.08609100942099998
2,1, 7,21, 0, 4,36.00,38.00,SummerDesignDay
3001,0.29999999999999993
3002,0.08609100942099998
2,1, 7,21, 0, 4,38.00,40.00,SummerDesignDay
3001,0.29999999999999993
3002,0.08609100942099998
2,1, 7,21, 0, 4,40.00,43.33,SummerDesignDay
3001,0.29999999999999993
3002,0.08609100942099998
2,1, 7,21, 0, 4,43.33,46.67,SummerDesignDay
3001,0.29999999999999993
3002,0.08609100942099998
2,1, 7,21, 0, 4,46.67,50.00,SummerDesignDay
3001,0.29999999999999993
3002,0.08609100942099998
2,1, 7,21, 0, 4,50.00,52.00,SummerDesignDay
3001,0.29999999999999993
3002,0.08609100942099998
2,1, 7,21, 0, 4,52.00,54.00,SummerDesignDay
3001,0.29999999999999993
3002,0.08609100942099998
2,1, 7,21, 0, 4,54.00,56.00,SummerDesignDay
3001,0.29999999999999993
3002,0.08609100942099998
2,1, 7,21, 0, 4,56.00,58.00,SummerDesignDay
3001,0.29999999999999993
3002,0.08609100942099998
2,1, 7,21, 0, 4,58.00,60.00,SummerDesignDay
3001,0.29999999999999993
3002,0.08609100942099998
2,1, 7,21, 0, 4, 0.00,60.00,SummerDesignDay
7,20.84775
8,0.01586857675697267
9,100.0
1109,25.468997460325678
1110,25.91878329342431
1111,25.999151679278274
1112,26.413842874057348
1113,26.835375424023017
1114,24.308660659232658
1115,23.491619120890945
1116,24.946706186899604
1117,23.44926696901381
1118,24.18498478805351
1119,23.142693683222763
1120,24.96719091705043
1121,23.126386982737106
1122,24.164300546003584
1123,23.248284689120567
1124,24.753292362591623
1125,22.98703037332814
1126,25.948119118308103
2367,268.0649139198986
2368,0.031196817600000006
2369,57.946377530814026
2370,59.088099144131036
2371,119.04549557711057
2731,0.5000000000000001
2733,0.8000000000000002
2735,0.8000000000000002
3702,1985204.8906418527
3703,111350267.19285984
3704,1985204.890641845
3705,0.0
3706,3465211.714067337
3707,193966957.01842776
3708,3465211.7140673213
3709,0.0
3710,3545075.375242688
3711,198152724.56060147
3712,3545075.3752426743
3713,0.0
2315,0.0
2698,1.0000000000000002
2699,1.6000000000000003
2700,1.6000000000000003
2730,0.5000000000000001
2732,0.8000000000000002
2734,0.8000000000000002
12,555554866.2252474
60,192989952.8442144
651,192989952.8442144
2558,0.0
2612,72000.0
2636,0.0
2675,8995491.979951842
2752,107254684.21804446
2,1, 7,21, 0, 5, 0.00, 2.00,SummerDesignDay
3001,0.29999999999999993
3002,0.08609100942099998
2,1, 7,21, 0, 5, 2.00, 4.00,SummerDesignDay
3001,0.29999999999999993
3002,0.08609100942099998
2,1, 7,21, 0, 5, 4.00, 6.00,SummerDesignDay
3001,0.29999999999999993
3002,0.08609100942099998
2,1, 7,21, 0, 5, 6.00, 8.00,SummerDesignDay
3001,0.29999999999999993
3002,0.08609100942099998
2,1, 7,21, 0, 5, 8.00,10.00,SummerDesignDay
3001,0.29999999999999993
3002,0.08609100942099998
2,1, 7,21, 0, 5,10.00,12.00,SummerDesignDay
3001,0.3248631724716426
3002,0.0940220432773226
2,1, 7,21, 0, 5,12.00,14.00,SummerDesignDay
3001,0.29999999999999993
3002,0.08609100942099998
2,1, 7,21, 0, 5,14.00,16.00,SummerDesignDay
3001,0.29999999999999993
3002,0.08609100942099998
2,1, 7,21, 0, 5,16.00,18.00,SummerDesignDay
3001,0.29999999999999993
3002,0.08609100942099998
2,1, 7,21, 0, 5,18.00,20.00,SummerDesignDay
3001,0.29999999999999993
3002,0.08609100942099998
2,1, 7,21, 0, 5,20.00,22.50,SummerDesignDay
3001,0.29999999999999993
3002,0.08609100942099998
2,1, 7,21, 0, 5,22.50,25.00,SummerDesignDay
3001,0.29999999999999993
3002,0.08609100942099998
2,1, 7,21, 0, 5,25.00,27.50,SummerDesignDay
3001,0.29999999999999993
3002,0.08609100942099998
2,1, 7,21, 0, 5,27.50,30.00,SummerDesignDay
3001,0.29999999999999993
3002,0.08609100942099998
2,1, 7,21, 0, 5,30.00,40.00,SummerDesignDay
3001,0.29999999999999993
3002,0.08609100942099998
2,1, 7,21, 0, 5,40.00,42.00,SummerDesignDay
3001,0.29999999999999993
3002,0.08609100942099998
2,1, 7,21, 0, 5,42.00,44.00,SummerDesignDay
3001,0.29999999999999993
3002,0.08609100942099998
2,1, 7,21, 0, 5,44.00,46.00,SummerDesignDay
3001,0.29999999999999993
3002,0.08609100942099998
2,1, 7,21, 0, 5,46.00,48.00,SummerDesignDay
3001,0.29999999999999993
3002,0.08609100942099998
2,1, 7,21, 0, 5,48.00,50.00,SummerDesignDay
3001,0.29999999999999993
3002,0.08609100942099998
2,1, 7,21, 0, 5,50.00,52.00,SummerDesignDay
3001,0.29999999999999993
3002,0.08609100942099998
2,1, 7,21, 0, 5,52.00,54.00,SummerDesignDay
3001,0.29999999999999993
3002,0.08609100942099998
2,1, 7,21, 0, 5,54.00,56.00,SummerDesignDay
3001,0.29999999999999993
3002,0.08609100942099998
2,1, 7,21, 0, 5,56.00,58.00,SummerDesignDay
3001,0.29999999999999993
3002,0.08609100942099998
2,1, 7,21, 0, 5,58.00,60.00,SummerDesignDay
3001,0.29999999999999993
3002,0.08609100942099998
2,1, 7,21, 0, 5, 0.00,60.00,SummerDesignDay
7,20.589166666666667
8,0.015611381877227486
9,100.0
1109,25.686444299319906
1110,26.255641763243066
1111,26.297142305211775
1112,26.359645822802165
1113,26.775009302936468
1114,24.429632582012506
1115,23.654822346318777
1116,25.051575289709508
1117,23.588475341198293
1118,24.541972711921478
1119,23.585657274364326
1120,25.267050827636485
1121,23.558471811079613
1122,24.493301049260285
1123,23.65806606875766
1124,25.039512553436868
1125,23.400130936930854
1126,25.685461009069257
2367,341.17251555564934
2368,0.0311968176
2369,57.386149288908655
2370,58.5941304006549
2371,183.51936721949986
2731,0.5
2733,0.6
2735,0.6
3702,1987202.294039568
3703,108140775.53225169
3704,1987202.2940395605
3705,0.0
3706,2671805.906044172
3707,142627598.40793988
3708,2671805.906044158
3709,0.0
3710,2733569.0771118663
3711,145715063.11179513
3712,2733569.077111855
3713,0.0
2315,0.0
2698,1.0
2699,1.2
2700,1.2
2730,0.5
2732,0.6
2734,0.6
12,504637366.1517623
60,192989952.8442144
651,192989952.8442144
2558,0.0
2612,3970647.9584988942
2636,0.0
2675,7392577.277195574
2752,84587298.84731561
2,1, 7,21, 0, 6, 0.00, 2.00,SummerDesignDay
3001,0.32335493925908626
3002,0.09351198341810005
2,1, 7,21, 0, 6, 2.00, 4.00,SummerDesignDay
3001,0.29999999999999993
3002,0.08609100942099998
2,1, 7,21, 0, 6, 4.00, 6.00,SummerDesignDay
3001,0.29999999999999993
3002,0.08609100942099998
2,1, 7,21, 0, 6, 6.00, 8.00,SummerDesignDay
3001,0.29999999999999993
3002,0.08609100942099998
2,1, 7,21, 0, 6, 8.00,10.00,SummerDesignDay
3001,0.29999999999999993
3002,0.08609100942099998
2,1, 7,21, 0, 6,10.00,12.50,SummerDesignDay
3001,0.29999999999999993
3002,0.08609100942099998
2,1, 7,21, 0, 6,12.50,15.00,SummerDesignDay
3001,0.29999999999999993
3002,0.08609100942099998
2,1, 7,21, 0, 6,15.00,17.50,SummerDesignDay
3001,0.29999999999999993
3002,0.08609100942099998
2,1, 7,21, 0, 6,17.50,20.00,SummerDesignDay
3001,0.29999999999999993
3002,0.08609100942099998
2,1, 7,21, 0, 6,20.00,22.00,SummerDesignDay
3001,0.29999999999999993
3002,0.08609100942099998
2,1, 7,21, 0, 6,22.00,24.00,SummerDesignDay
3001,0.29999999999999993
3002,0.08609100942099998
2,1, 7,21, 0, 6,24.00,26.00,SummerDesignDay
3001,0.29999999999999993
3002,0.08609100942099998
2,1, 7,21, 0, 6,26.00,28.00,SummerDesignDay
3001,0.29999999999999993
3002,0.08609100942099998
2,1, 7,21, 0, 6,28.00,30.00,SummerDesignDay
3001,0.29999999999999993
3002,0.08609100942099998
2,1, 7,21, 0, 6,30.00,32.00,SummerDesignDay
3001,0.29999999999999993
3002,0.08609100942099998
2,1, 7,21, 0, 6,32.00,34.00,SummerDesignDay
3001,0.29999999999999993
3002,0.08609100942099998
2,1, 7,21, 0, 6,34.00,36.00,SummerDesignDay
3001,0.29999999999999993
3002,0.08609100942099998
2,1, 7,21, 0, 6,36.00,38.00,SummerDesignDay
3001,0.29999999999999993
3002,0.08609100942099998
2,1, 7,21, 0, 6,38.00,40.00,SummerDesignDay
3001,0.29999999999999993
3002,0.08609100942099998
2,1, 7,21, 0, 6,40.00,42.00,SummerDesignDay
3001,0.29999999999999993
3002,0.08609100942099998
2,1, 7,21, 0, 6,42.00,44.00,SummerDesignDay
3001,0.29999999999999993
3002,0.08609100942099998
2,1, 7,21, 0, 6,44.00,46.00,SummerDesignDay
3001,0.29999999999999993
3002,0.08609100942099998
2,1, 7,21, 0, 6,46.00,48.00,SummerDesignDay
3001,0.29999999999999993
3002,0.08609100942099998
2,1, 7,21, 0, 6,48.00,50.00,SummerDesignDay
3001,0.29999999999999993
3002,0.08609100942099998
2,1, 7,21, 0, 6,50.00,52.00,SummerDesignDay
3001,0.29999999999999993
3002,0.08609100942099998
2,1, 7,21, 0, 6,52.00,54.00,SummerDesignDay
3001,0.29999999999999993
3002,0.08609100942099998
2,1, 7,21, 0, 6,54.00,56.00,SummerDesignDay
3001,0.29999999999999993
3002,0.08609100942099998
2,1, 7,21, 0, 6,56.00,58.00,SummerDesignDay
3001,0.29999999999999993
3002,0.08609100942099998
2,1, 7,21, 0, 6,58.00,60.00,SummerDesignDay
3001,0.29999999999999993
3002,0.08609100942099998
2,1, 7,21, 0, 6, 0.00,60.00,SummerDesignDay
7,20.62483333333333
8,0.015646613817982914
9,100.0
1109,25.410690791750174
1110,25.99351512838025
1111,26.010493863713993
1112,26.550119453544983
1113,26.89744359092437
1114,24.136486930709626
1115,24.495925134839393
1116,25.254230645738218
1117,23.08577683995868
1118,24.217045653378747
1119,24.35622677088441
1120,25.395781431917538
1121,23.07622610367139
1122,24.126962961057743
1123,24.397201159258945
1124,25.08925787909231
1125,22.87681696079761
1126,25.775714026930917
2367,330.5053044935169
2368,0.0311968176
2369,57.46790771039755
2370,59.32478000416964
2371,88.14901142048213
2731,0.7333333333333334
2733,0.7999999999999999
2735,0.7999999999999999
3702,2908122.5512265284
3703,158095563.90210444
3704,2908122.551226517
3705,0.0
3706,3479500.8187907357
3707,188648262.17971236
3708,3479500.818790719
3709,0.0
3710,3544574.7083479366
3711,192227862.13937232
3712,3544574.708347924
3713,0.0
2315,0.0
2698,1.4666666666666668
2699,1.5999999999999999
2700,1.5999999999999999
2730,0.7333333333333334
2732,0.7999999999999999
2734,0.7999999999999999
12,510954176.9601739
60,192989952.8442144
651,192989952.8442144
2558,0.0
2612,72000.0
2636,0.0
2675,9932198.07836516
2752,115011688.8545576
2,1, 7,21, 0, 7, 0.00, 2.00,SummerDesignDay
3001,0.5822029257679912
3002,0.2535419363599447
2,1, 7,21, 0, 7, 2.00, 4.00,SummerDesignDay
3001,0.41493565542695476
3002,0.13215798499352885
2,1, 7,21, 0, 7, 4.00, 6.00,SummerDesignDay
3001,0.3953625233783791
3002,0.12249323827810028
2,1, 7,21, 0, 7, 6.00, 8.00,SummerDesignDay
3001,0.3948915753933326
3002,0.12227074357100139
2,1, 7,21, 0, 7, 8.00,10.00,SummerDesignDay
3001,0.3948681768561161
3002,0.1222597012575655
2,1, 7,21, 0, 7,10.00,20.00,SummerDesignDay
3001,0.40631747451515093
3002,0.12780101686488407
2,1, 7,21, 0, 7,20.00,30.00,SummerDesignDay
3001,0.4022120149257634
3002,0.12578198394316345
2,1, 7,21, 0, 7,30.00,40.00,SummerDesignDay
3001,0.40251431728932957
3002,0.12592942371715451
2,1, 7,21, 0, 7,40.00,50.00,SummerDesignDay
3001,0.40317111860993576
3002,0.1262504328930113
2,1, 7,21, 0, 7,50.00,60.00,SummerDesignDay
3001,0.403981820218867
3002,0.12664793167817864
2,1, 7,21, 0, 7, 0.00,60.00,SummerDesignDay
7,21.150916666666664
8,0.01617590043622784
9,100.0
1109,24.00205956594635
1110,24.020111457950676
1111,24.020670016870923
1112,26.1043546333254
1113,25.988476089730355
1114,23.716394521102163
1115,24.001751374745925
1116,24.001235305617985
1117,22.383747739425555
1118,23.996748630994073
1119,24.001255970623358
1120,24.00447514872322
1121,22.822646380499844
1122,23.984099365217478
1123,24.00133422843695
1124,24.000730988366282
1125,22.587616459417447
1126,25.517160687900546
2367,398.6434404656834
2368,0.0311968176
2369,56.94572347346833
2370,58.638536814377325
2371,177.72367593369128
2731,1.0
2733,1.0
2735,1.0
3702,5987437.719405073
3703,317531907.87111276